 TITLE = " Years"
 VARIABLES = "X (meters)", "pH "
 ZONE F=POINT,I=         160
 2.22609E-03               4.02553E+00
 6.67828E-03               4.12409E+00
 1.11305E-02               4.19888E+00
 1.55827E-02               4.26275E+00
 2.00348E-02               4.31847E+00
 2.44870E-02               4.36779E+00
 2.89392E-02               4.41197E+00
 3.33914E-02               4.45196E+00
 3.78436E-02               4.48845E+00
 4.22958E-02               4.52200E+00
 4.67480E-02               4.55304E+00
 5.12002E-02               4.58191E+00
 5.56524E-02               4.60888E+00
 6.01045E-02               4.63420E+00
 6.45567E-02               4.65804E+00
 6.90089E-02               4.68056E+00
 7.34611E-02               4.70191E+00
 7.79133E-02               4.72220E+00
 8.23655E-02               4.74152E+00
 8.68177E-02               4.75997E+00
 9.12699E-02               4.77761E+00
 9.57220E-02               4.79452E+00
 1.00174E-01               4.81074E+00
 1.04626E-01               4.82634E+00
 1.09079E-01               4.84136E+00
 1.13531E-01               4.85584E+00
 1.17983E-01               4.86981E+00
 1.22435E-01               4.88331E+00
 1.26887E-01               4.89637E+00
 1.31340E-01               4.90901E+00
 1.35792E-01               4.92127E+00
 1.40244E-01               4.93316E+00
 1.44696E-01               4.94470E+00
 1.49148E-01               4.95592E+00
 1.53600E-01               4.96682E+00
 1.58053E-01               4.97743E+00
 1.62505E-01               4.98776E+00
 1.66957E-01               4.99783E+00
 1.71409E-01               5.00764E+00
 1.75861E-01               5.01721E+00
 1.80314E-01               5.02655E+00
 1.84766E-01               5.03567E+00
 1.89218E-01               5.04458E+00
 1.93670E-01               5.05329E+00
 1.98122E-01               5.06181E+00
 2.02575E-01               5.07014E+00
 2.07027E-01               5.07829E+00
 2.11479E-01               5.08627E+00
 2.15931E-01               5.09408E+00
 2.20383E-01               5.10173E+00
 2.24835E-01               5.10924E+00
 2.29288E-01               5.11659E+00
 2.33740E-01               5.12380E+00
 2.38192E-01               5.13088E+00
 2.42644E-01               5.13782E+00
 2.47096E-01               5.14463E+00
 2.51549E-01               5.15132E+00
 2.56001E-01               5.15789E+00
 2.60453E-01               5.16434E+00
 2.64905E-01               5.17068E+00
 2.69357E-01               5.17690E+00
 2.73810E-01               5.18303E+00
 2.78262E-01               5.18904E+00
 2.82714E-01               5.19496E+00
 2.87166E-01               5.20078E+00
 2.91618E-01               5.20650E+00
 2.96071E-01               5.21214E+00
 3.00523E-01               5.21768E+00
 3.04975E-01               5.22313E+00
 3.09427E-01               5.22850E+00
 3.13879E-01               5.23379E+00
 3.18331E-01               5.23899E+00
 3.22784E-01               5.24412E+00
 3.27236E-01               5.24916E+00
 3.31688E-01               5.25414E+00
 3.36140E-01               5.25903E+00
 3.40592E-01               5.26386E+00
 3.45045E-01               5.26862E+00
 3.49497E-01               5.27331E+00
 3.53949E-01               5.27793E+00
 3.58401E-01               5.28248E+00
 3.62853E-01               5.28697E+00
 3.67306E-01               5.29140E+00
 3.71758E-01               5.29577E+00
 3.76210E-01               5.30008E+00
 3.80662E-01               5.30432E+00
 3.85114E-01               5.30851E+00
 3.89566E-01               5.31265E+00
 3.94019E-01               5.31672E+00
 3.98471E-01               5.32075E+00
 4.02923E-01               5.32472E+00
 4.07375E-01               5.32863E+00
 4.11827E-01               5.33250E+00
 4.16280E-01               5.33631E+00
 4.20732E-01               5.34008E+00
 4.25184E-01               5.34380E+00
 4.29636E-01               5.34747E+00
 4.34088E-01               5.35109E+00
 4.38541E-01               5.35466E+00
 4.42993E-01               5.35820E+00
 4.47445E-01               5.36168E+00
 4.51897E-01               5.36512E+00
 4.56349E-01               5.36852E+00
 4.60801E-01               5.37188E+00
 4.65254E-01               5.37520E+00
 4.69706E-01               5.37847E+00
 4.74158E-01               5.38171E+00
 4.78610E-01               5.38490E+00
 4.83062E-01               5.38806E+00
 4.87515E-01               5.39117E+00
 4.91967E-01               5.39425E+00
 4.96419E-01               5.39729E+00
 5.00871E-01               5.40030E+00
 5.05323E-01               5.40327E+00
 5.09776E-01               5.40620E+00
 5.14228E-01               5.40910E+00
 5.18680E-01               5.41197E+00
 5.23132E-01               5.41480E+00
 5.27584E-01               5.41759E+00
 5.32036E-01               5.42036E+00
 5.36489E-01               5.42309E+00
 5.40941E-01               5.42579E+00
 5.45393E-01               5.42846E+00
 5.49845E-01               5.43109E+00
 5.54297E-01               5.43370E+00
 5.58750E-01               5.43627E+00
 5.63202E-01               5.43882E+00
 5.67654E-01               5.44133E+00
 5.72106E-01               5.44382E+00
 5.76558E-01               5.44628E+00
 5.81011E-01               5.44871E+00
 5.85463E-01               5.45111E+00
 5.89915E-01               5.45348E+00
 5.94367E-01               5.45583E+00
 5.98819E-01               5.45815E+00
 6.03271E-01               5.46044E+00
 6.07724E-01               5.46271E+00
 6.12176E-01               5.46495E+00
 6.16628E-01               5.46716E+00
 6.21080E-01               5.46935E+00
 6.25532E-01               5.47151E+00
 6.29985E-01               5.47365E+00
 6.34437E-01               5.47577E+00
 6.38889E-01               5.47785E+00
 6.43341E-01               5.47992E+00
 6.47793E-01               5.48195E+00
 6.52246E-01               5.48396E+00
 6.56698E-01               5.48595E+00
 6.61150E-01               5.48790E+00
 6.65602E-01               5.48982E+00
 6.70054E-01               5.49171E+00
 6.74506E-01               5.49355E+00
 6.78959E-01               5.49534E+00
 6.83411E-01               5.49707E+00
 6.87863E-01               5.49872E+00
 6.92315E-01               5.50026E+00
 6.96767E-01               5.50166E+00
 7.01220E-01               5.50287E+00
 7.05672E-01               5.50382E+00
 7.10124E-01               5.50438E+00
