# Units: Mol/kgw
 TITLE = " Years"
VARIABLES = "X (meters)", "H+        ", "CO2(aq)   ", "Ca++      ", "Na+       ", "Cl-       ", "Tracer    ", "
 ZONE F=POINT,I=         160
 2.22609E-03              -6.26446E-04   1.36520E-01   3.13223E-04   1.00000E-02   1.00000E-02   1.00000E-02
 6.67828E-03              -8.36602E-04   1.36625E-01   4.18301E-04   1.00000E-02   1.00000E-02   1.00000E-02
 1.11305E-02              -1.02487E-03   1.36719E-01   5.12437E-04   1.00000E-02   1.00000E-02   1.00000E-02
 1.55827E-02              -1.21004E-03   1.36811E-01   6.05021E-04   1.00000E-02   1.00000E-02   1.00000E-02
 2.00348E-02              -1.39337E-03   1.36903E-01   6.96684E-04   1.00000E-02   1.00000E-02   1.00000E-02
 2.44870E-02              -1.57521E-03   1.36994E-01   7.87606E-04   1.00000E-02   1.00000E-02   1.00000E-02
 2.89392E-02              -1.75581E-03   1.37084E-01   8.77907E-04   1.00000E-02   1.00000E-02   1.00000E-02
 3.33914E-02              -1.93535E-03   1.37174E-01   9.67676E-04   1.00000E-02   1.00000E-02   1.00000E-02
 3.78436E-02              -2.11397E-03   1.37263E-01   1.05698E-03   1.00000E-02   1.00000E-02   1.00000E-02
 4.22958E-02              -2.29177E-03   1.37352E-01   1.14588E-03   1.00000E-02   1.00000E-02   1.00000E-02
 4.67480E-02              -2.46885E-03   1.37441E-01   1.23442E-03   1.00000E-02   1.00000E-02   1.00000E-02
 5.12002E-02              -2.64527E-03   1.37529E-01   1.32263E-03   1.00000E-02   1.00000E-02   1.00000E-02
 5.56524E-02              -2.82110E-03   1.37617E-01   1.41055E-03   1.00000E-02   1.00000E-02   1.00000E-02
 6.01045E-02              -2.99638E-03   1.37705E-01   1.49819E-03   1.00000E-02   1.00000E-02   1.00000E-02
 6.45567E-02              -3.17115E-03   1.37792E-01   1.58557E-03   1.00000E-02   1.00000E-02   1.00000E-02
 6.90089E-02              -3.34545E-03   1.37879E-01   1.67272E-03   1.00000E-02   1.00000E-02   1.00000E-02
 7.34611E-02              -3.51930E-03   1.37966E-01   1.75965E-03   1.00000E-02   1.00000E-02   1.00000E-02
 7.79133E-02              -3.69273E-03   1.38053E-01   1.84636E-03   1.00000E-02   1.00000E-02   1.00000E-02
 8.23655E-02              -3.86576E-03   1.38139E-01   1.93288E-03   1.00000E-02   1.00000E-02   1.00000E-02
 8.68177E-02              -4.03840E-03   1.38226E-01   2.01920E-03   1.00000E-02   1.00000E-02   1.00000E-02
 9.12699E-02              -4.21067E-03   1.38312E-01   2.10533E-03   1.00000E-02   1.00000E-02   1.00000E-02
 9.57220E-02              -4.38258E-03   1.38398E-01   2.19129E-03   1.00000E-02   1.00000E-02   1.00000E-02
 1.00174E-01              -4.55414E-03   1.38483E-01   2.27707E-03   1.00000E-02   1.00000E-02   1.00000E-02
 1.04626E-01              -4.72536E-03   1.38569E-01   2.36268E-03   1.00000E-02   1.00000E-02   1.00000E-02
 1.09079E-01              -4.89624E-03   1.38654E-01   2.44812E-03   1.00000E-02   1.00000E-02   1.00000E-02
 1.13531E-01              -5.06679E-03   1.38740E-01   2.53340E-03   1.00000E-02   1.00000E-02   1.00000E-02
 1.17983E-01              -5.23702E-03   1.38825E-01   2.61851E-03   1.00000E-02   1.00000E-02   1.00000E-02
 1.22435E-01              -5.40693E-03   1.38910E-01   2.70347E-03   1.00000E-02   1.00000E-02   1.00000E-02
 1.26887E-01              -5.57652E-03   1.38995E-01   2.78826E-03   1.00000E-02   1.00000E-02   1.00000E-02
 1.31340E-01              -5.74579E-03   1.39079E-01   2.87290E-03   1.00000E-02   1.00000E-02   1.00000E-02
 1.35792E-01              -5.91475E-03   1.39164E-01   2.95737E-03   1.00000E-02   1.00000E-02   1.00000E-02
 1.40244E-01              -6.08339E-03   1.39248E-01   3.04169E-03   1.00000E-02   1.00000E-02   1.00000E-02
 1.44696E-01              -6.25171E-03   1.39332E-01   3.12585E-03   1.00000E-02   1.00000E-02   1.00000E-02
 1.49148E-01              -6.41971E-03   1.39416E-01   3.20986E-03   1.00000E-02   1.00000E-02   1.00000E-02
 1.53600E-01              -6.58740E-03   1.39500E-01   3.29370E-03   1.00000E-02   1.00000E-02   1.00000E-02
 1.58053E-01              -6.75477E-03   1.39584E-01   3.37738E-03   1.00000E-02   1.00000E-02   1.00000E-02
 1.62505E-01              -6.92181E-03   1.39667E-01   3.46091E-03   1.00000E-02   1.00000E-02   1.00000E-02
 1.66957E-01              -7.08853E-03   1.39751E-01   3.54427E-03   1.00000E-02   1.00000E-02   1.00000E-02
 1.71409E-01              -7.25493E-03   1.39834E-01   3.62746E-03   1.00000E-02   1.00000E-02   1.00000E-02
 1.75861E-01              -7.42099E-03   1.39917E-01   3.71050E-03   1.00000E-02   1.00000E-02   1.00000E-02
 1.80314E-01              -7.58672E-03   1.40000E-01   3.79336E-03   1.00000E-02   1.00000E-02   1.00000E-02
 1.84766E-01              -7.75211E-03   1.40082E-01   3.87606E-03   1.00000E-02   1.00000E-02   1.00000E-02
 1.89218E-01              -7.91716E-03   1.40165E-01   3.95858E-03   1.00000E-02   1.00000E-02   1.00000E-02
 1.93670E-01              -8.08187E-03   1.40247E-01   4.04094E-03   1.00000E-02   1.00000E-02   1.00000E-02
 1.98122E-01              -8.24623E-03   1.40329E-01   4.12311E-03   1.00000E-02   1.00000E-02   1.00000E-02
 2.02575E-01              -8.41023E-03   1.40411E-01   4.20512E-03   1.00000E-02   1.00000E-02   1.00000E-02
 2.07027E-01              -8.57388E-03   1.40493E-01   4.28694E-03   1.00000E-02   1.00000E-02   1.00000E-02
 2.11479E-01              -8.73717E-03   1.40575E-01   4.36858E-03   1.00000E-02   1.00000E-02   1.00000E-02
 2.15931E-01              -8.90008E-03   1.40656E-01   4.45004E-03   1.00000E-02   1.00000E-02   1.00000E-02
 2.20383E-01              -9.06263E-03   1.40738E-01   4.53132E-03   1.00000E-02   1.00000E-02   1.00000E-02
 2.24835E-01              -9.22480E-03   1.40819E-01   4.61240E-03   1.00000E-02   1.00000E-02   1.00000E-02
 2.29288E-01              -9.38659E-03   1.40900E-01   4.69329E-03   1.00000E-02   1.00000E-02   1.00000E-02
 2.33740E-01              -9.54799E-03   1.40980E-01   4.77399E-03   1.00000E-02   1.00000E-02   1.00000E-02
 2.38192E-01              -9.70899E-03   1.41061E-01   4.85450E-03   1.00000E-02   1.00000E-02   1.00000E-02
 2.42644E-01              -9.86960E-03   1.41141E-01   4.93480E-03   1.00000E-02   1.00000E-02   1.00000E-02
 2.47096E-01              -1.00298E-02   1.41221E-01   5.01490E-03   1.00000E-02   1.00000E-02   1.00000E-02
 2.51549E-01              -1.01896E-02   1.41301E-01   5.09480E-03   1.00000E-02   1.00000E-02   1.00000E-02
 2.56001E-01              -1.03490E-02   1.41381E-01   5.17449E-03   1.00000E-02   1.00000E-02   1.00000E-02
 2.60453E-01              -1.05079E-02   1.41460E-01   5.25397E-03   1.00000E-02   1.00000E-02   1.00000E-02
 2.64905E-01              -1.06665E-02   1.41540E-01   5.33324E-03   1.00000E-02   1.00000E-02   1.00000E-02
 2.69357E-01              -1.08246E-02   1.41619E-01   5.41229E-03   1.00000E-02   1.00000E-02   1.00000E-02
 2.73810E-01              -1.09823E-02   1.41697E-01   5.49113E-03   1.00000E-02   1.00000E-02   1.00000E-02
 2.78262E-01              -1.11395E-02   1.41776E-01   5.56974E-03   1.00000E-02   1.00000E-02   1.00000E-02
 2.82714E-01              -1.12963E-02   1.41854E-01   5.64813E-03   1.00000E-02   1.00000E-02   1.00000E-02
 2.87166E-01              -1.14526E-02   1.41933E-01   5.72629E-03   1.00000E-02   1.00000E-02   1.00000E-02
 2.91618E-01              -1.16084E-02   1.42011E-01   5.80422E-03   1.00000E-02   1.00000E-02   1.00000E-02
 2.96071E-01              -1.17638E-02   1.42088E-01   5.88192E-03   1.00000E-02   1.00000E-02   1.00000E-02
 3.00523E-01              -1.19188E-02   1.42166E-01   5.95939E-03   1.00000E-02   1.00000E-02   1.00000E-02
 3.04975E-01              -1.20732E-02   1.42243E-01   6.03661E-03   1.00000E-02   1.00000E-02   1.00000E-02
 3.09427E-01              -1.22272E-02   1.42320E-01   6.11360E-03   1.00000E-02   1.00000E-02   1.00000E-02
 3.13879E-01              -1.23807E-02   1.42397E-01   6.19034E-03   1.00000E-02   1.00000E-02   1.00000E-02
 3.18331E-01              -1.25337E-02   1.42473E-01   6.26683E-03   1.00000E-02   1.00000E-02   1.00000E-02
 3.22784E-01              -1.26861E-02   1.42549E-01   6.34307E-03   1.00000E-02   1.00000E-02   1.00000E-02
 3.27236E-01              -1.28381E-02   1.42625E-01   6.41906E-03   1.00000E-02   1.00000E-02   1.00000E-02
 3.31688E-01              -1.29896E-02   1.42701E-01   6.49480E-03   1.00000E-02   1.00000E-02   1.00000E-02
 3.36140E-01              -1.31405E-02   1.42777E-01   6.57027E-03   1.00000E-02   1.00000E-02   1.00000E-02
 3.40592E-01              -1.32910E-02   1.42852E-01   6.64549E-03   1.00000E-02   1.00000E-02   1.00000E-02
 3.45045E-01              -1.34409E-02   1.42927E-01   6.72044E-03   1.00000E-02   1.00000E-02   1.00000E-02
 3.49497E-01              -1.35902E-02   1.43001E-01   6.79512E-03   1.00000E-02   1.00000E-02   1.00000E-02
 3.53949E-01              -1.37391E-02   1.43076E-01   6.86954E-03   1.00000E-02   1.00000E-02   1.00000E-02
 3.58401E-01              -1.38874E-02   1.43150E-01   6.94368E-03   1.00000E-02   1.00000E-02   1.00000E-02
 3.62853E-01              -1.40351E-02   1.43224E-01   7.01755E-03   1.00000E-02   1.00000E-02   1.00000E-02
 3.67306E-01              -1.41823E-02   1.43297E-01   7.09115E-03   1.00000E-02   1.00000E-02   1.00000E-02
 3.71758E-01              -1.43289E-02   1.43371E-01   7.16446E-03   1.00000E-02   1.00000E-02   1.00000E-02
 3.76210E-01              -1.44750E-02   1.43444E-01   7.23749E-03   9.99999E-03   9.99999E-03   9.99999E-03
 3.80662E-01              -1.46205E-02   1.43517E-01   7.31023E-03   9.99999E-03   9.99999E-03   9.99999E-03
 3.85114E-01              -1.47654E-02   1.43589E-01   7.38269E-03   9.99999E-03   9.99999E-03   9.99999E-03
 3.89566E-01              -1.49097E-02   1.43661E-01   7.45486E-03   9.99999E-03   9.99999E-03   9.99999E-03
 3.94019E-01              -1.50535E-02   1.43733E-01   7.52674E-03   9.99999E-03   9.99999E-03   9.99999E-03
 3.98471E-01              -1.51966E-02   1.43805E-01   7.59832E-03   9.99999E-03   9.99999E-03   9.99999E-03
 4.02923E-01              -1.53392E-02   1.43876E-01   7.66960E-03   9.99999E-03   9.99999E-03   9.99999E-03
 4.07375E-01              -1.54812E-02   1.43947E-01   7.74058E-03   9.99999E-03   9.99999E-03   9.99999E-03
 4.11827E-01              -1.56225E-02   1.44018E-01   7.81127E-03   9.99999E-03   9.99999E-03   9.99999E-03
 4.16280E-01              -1.57633E-02   1.44088E-01   7.88164E-03   9.99998E-03   9.99998E-03   9.99998E-03
 4.20732E-01              -1.59034E-02   1.44158E-01   7.95172E-03   9.99998E-03   9.99998E-03   9.99998E-03
 4.25184E-01              -1.60430E-02   1.44228E-01   8.02148E-03   9.99998E-03   9.99998E-03   9.99998E-03
 4.29636E-01              -1.61819E-02   1.44297E-01   8.09093E-03   9.99998E-03   9.99998E-03   9.99998E-03
 4.34088E-01              -1.63201E-02   1.44366E-01   8.16007E-03   9.99997E-03   9.99997E-03   9.99997E-03
 4.38541E-01              -1.64578E-02   1.44435E-01   8.22890E-03   9.99997E-03   9.99997E-03   9.99997E-03
 4.42993E-01              -1.65948E-02   1.44504E-01   8.29741E-03   9.99996E-03   9.99996E-03   9.99996E-03
 4.47445E-01              -1.67312E-02   1.44572E-01   8.36560E-03   9.99996E-03   9.99996E-03   9.99996E-03
 4.51897E-01              -1.68669E-02   1.44640E-01   8.43347E-03   9.99995E-03   9.99995E-03   9.99995E-03
 4.56349E-01              -1.70020E-02   1.44707E-01   8.50101E-03   9.99995E-03   9.99995E-03   9.99995E-03
 4.60801E-01              -1.71365E-02   1.44775E-01   8.56823E-03   9.99994E-03   9.99994E-03   9.99994E-03
 4.65254E-01              -1.72703E-02   1.44841E-01   8.63513E-03   9.99993E-03   9.99993E-03   9.99993E-03
 4.69706E-01              -1.74034E-02   1.44908E-01   8.70170E-03   9.99993E-03   9.99993E-03   9.99993E-03
 4.74158E-01              -1.75359E-02   1.44974E-01   8.76793E-03   9.99992E-03   9.99992E-03   9.99992E-03
 4.78610E-01              -1.76677E-02   1.45040E-01   8.83384E-03   9.99991E-03   9.99991E-03   9.99991E-03
 4.83062E-01              -1.77988E-02   1.45106E-01   8.89941E-03   9.99989E-03   9.99989E-03   9.99989E-03
 4.87515E-01              -1.79293E-02   1.45171E-01   8.96465E-03   9.99988E-03   9.99988E-03   9.99988E-03
 4.91967E-01              -1.80591E-02   1.45236E-01   9.02955E-03   9.99987E-03   9.99987E-03   9.99987E-03
 4.96419E-01              -1.81882E-02   1.45300E-01   9.09411E-03   9.99985E-03   9.99985E-03   9.99985E-03
 5.00871E-01              -1.83167E-02   1.45365E-01   9.15834E-03   9.99983E-03   9.99983E-03   9.99983E-03
 5.05323E-01              -1.84444E-02   1.45429E-01   9.22222E-03   9.99981E-03   9.99981E-03   9.99981E-03
 5.09776E-01              -1.85715E-02   1.45492E-01   9.28577E-03   9.99979E-03   9.99979E-03   9.99979E-03
 5.14228E-01              -1.86979E-02   1.45555E-01   9.34896E-03   9.99976E-03   9.99976E-03   9.99976E-03
 5.18680E-01              -1.88236E-02   1.45618E-01   9.41182E-03   9.99973E-03   9.99973E-03   9.99973E-03
 5.23132E-01              -1.89487E-02   1.45681E-01   9.47433E-03   9.99970E-03   9.99970E-03   9.99970E-03
 5.27584E-01              -1.90730E-02   1.45743E-01   9.53649E-03   9.99967E-03   9.99967E-03   9.99967E-03
 5.32036E-01              -1.91966E-02   1.45805E-01   9.59830E-03   9.99963E-03   9.99963E-03   9.99963E-03
 5.36489E-01              -1.93195E-02   1.45866E-01   9.65977E-03   9.99958E-03   9.99958E-03   9.99958E-03
 5.40941E-01              -1.94418E-02   1.45927E-01   9.72088E-03   9.99953E-03   9.99953E-03   9.99953E-03
 5.45393E-01              -1.95633E-02   1.45988E-01   9.78164E-03   9.99948E-03   9.99948E-03   9.99948E-03
 5.49845E-01              -1.96841E-02   1.46048E-01   9.84205E-03   9.99942E-03   9.99942E-03   9.99942E-03
 5.54297E-01              -1.98042E-02   1.46108E-01   9.90211E-03   9.99936E-03   9.99936E-03   9.99936E-03
 5.58750E-01              -1.99236E-02   1.46168E-01   9.96181E-03   9.99928E-03   9.99928E-03   9.99928E-03
 5.63202E-01              -2.00423E-02   1.46228E-01   1.00212E-02   9.99920E-03   9.99920E-03   9.99920E-03
 5.67654E-01              -2.01603E-02   1.46287E-01   1.00802E-02   9.99911E-03   9.99911E-03   9.99911E-03
 5.72106E-01              -2.02776E-02   1.46345E-01   1.01388E-02   9.99902E-03   9.99902E-03   9.99902E-03
 5.76558E-01              -2.03942E-02   1.46403E-01   1.01971E-02   9.99891E-03   9.99891E-03   9.99891E-03
 5.81011E-01              -2.05100E-02   1.46461E-01   1.02550E-02   9.99879E-03   9.99879E-03   9.99879E-03
 5.85463E-01              -2.06251E-02   1.46519E-01   1.03126E-02   9.99866E-03   9.99866E-03   9.99866E-03
 5.89915E-01              -2.07395E-02   1.46576E-01   1.03698E-02   9.99851E-03   9.99851E-03   9.99851E-03
 5.94367E-01              -2.08532E-02   1.46633E-01   1.04266E-02   9.99835E-03   9.99835E-03   9.99835E-03
 5.98819E-01              -2.09662E-02   1.46689E-01   1.04831E-02   9.99818E-03   9.99818E-03   9.99818E-03
 6.03271E-01              -2.10784E-02   1.46746E-01   1.05392E-02   9.99799E-03   9.99799E-03   9.99799E-03
 6.07724E-01              -2.11900E-02   1.46801E-01   1.05950E-02   9.99778E-03   9.99778E-03   9.99778E-03
 6.12176E-01              -2.13008E-02   1.46857E-01   1.06504E-02   9.99755E-03   9.99755E-03   9.99755E-03
 6.16628E-01              -2.14108E-02   1.46912E-01   1.07054E-02   9.99730E-03   9.99730E-03   9.99730E-03
 6.21080E-01              -2.15201E-02   1.46966E-01   1.07601E-02   9.99703E-03   9.99703E-03   9.99703E-03
 6.25532E-01              -2.16287E-02   1.47021E-01   1.08144E-02   9.99673E-03   9.99673E-03   9.99673E-03
 6.29985E-01              -2.17365E-02   1.47075E-01   1.08683E-02   9.99640E-03   9.99640E-03   9.99640E-03
 6.34437E-01              -2.18436E-02   1.47128E-01   1.09218E-02   9.99605E-03   9.99605E-03   9.99605E-03
 6.38889E-01              -2.19499E-02   1.47181E-01   1.09749E-02   9.99566E-03   9.99566E-03   9.99566E-03
 6.43341E-01              -2.20554E-02   1.47234E-01   1.10277E-02   9.99524E-03   9.99524E-03   9.99524E-03
 6.47793E-01              -2.21600E-02   1.47286E-01   1.10800E-02   9.99479E-03   9.99479E-03   9.99479E-03
 6.52246E-01              -2.22637E-02   1.47338E-01   1.11318E-02   9.99431E-03   9.99431E-03   9.99431E-03
 6.56698E-01              -2.23664E-02   1.47390E-01   1.11832E-02   9.99379E-03   9.99379E-03   9.99379E-03
 6.61150E-01              -2.24680E-02   1.47441E-01   1.12340E-02   9.99323E-03   9.99323E-03   9.99323E-03
 6.65602E-01              -2.25684E-02   1.47491E-01   1.12842E-02   9.99263E-03   9.99263E-03   9.99263E-03
 6.70054E-01              -2.26673E-02   1.47540E-01   1.13337E-02   9.99201E-03   9.99201E-03   9.99201E-03
 6.74506E-01              -2.27644E-02   1.47589E-01   1.13822E-02   9.99135E-03   9.99135E-03   9.99135E-03
 6.78959E-01              -2.28592E-02   1.47636E-01   1.14296E-02   9.99067E-03   9.99067E-03   9.99067E-03
 6.83411E-01              -2.29511E-02   1.47682E-01   1.14755E-02   9.98997E-03   9.98997E-03   9.98997E-03
 6.87863E-01              -2.30390E-02   1.47726E-01   1.15195E-02   9.98927E-03   9.98927E-03   9.98927E-03
 6.92315E-01              -2.31216E-02   1.47767E-01   1.15608E-02   9.98859E-03   9.98859E-03   9.98859E-03
 6.96767E-01              -2.31968E-02   1.47805E-01   1.15984E-02   9.98795E-03   9.98795E-03   9.98795E-03
 7.01220E-01              -2.32619E-02   1.47838E-01   1.16310E-02   9.98739E-03   9.98739E-03   9.98739E-03
 7.05672E-01              -2.33127E-02   1.47863E-01   1.16564E-02   9.98696E-03   9.98696E-03   9.98696E-03
 7.10124E-01              -2.33433E-02   1.47878E-01   1.16717E-02   9.98674E-03   9.98674E-03   9.98674E-03
