 TITLE = " Years"
 VARIABLES = "X (meters)", "pH "
 ZONE F=POINT,I=         100
 5.00000E-02               6.96042E+00
 1.50000E-01               6.93779E+00
 2.50000E-01               6.91888E+00
 3.50000E-01               6.90328E+00
 4.50000E-01               6.89121E+00
 5.50000E-01               6.88427E+00
 6.50000E-01               6.88749E+00
 7.50000E-01               6.91425E+00
 8.50000E-01               6.97744E+00
 9.50000E-01               7.05208E+00
 1.05000E+00               7.13022E+00
 1.15000E+00               7.21248E+00
 1.25000E+00               7.30058E+00
 1.35000E+00               7.39680E+00
 1.45000E+00               7.50402E+00
 1.55000E+00               7.62564E+00
 1.65000E+00               7.76458E+00
 1.75000E+00               7.91968E+00
 1.85000E+00               8.08047E+00
 1.95000E+00               8.23013E+00
 2.05000E+00               8.35836E+00
 2.15000E+00               8.46477E+00
 2.25000E+00               8.55322E+00
 2.35000E+00               8.62774E+00
 2.45000E+00               8.69156E+00
 2.55000E+00               8.74705E+00
 2.65000E+00               8.79593E+00
 2.75000E+00               8.83948E+00
 2.85000E+00               8.87863E+00
 2.95000E+00               8.91411E+00
 3.05000E+00               8.94649E+00
 3.15000E+00               8.97619E+00
 3.25000E+00               9.00357E+00
 3.35000E+00               9.02891E+00
 3.45000E+00               9.05244E+00
 3.55000E+00               9.07434E+00
 3.65000E+00               9.09477E+00
 3.75000E+00               9.11385E+00
 3.85000E+00               9.13169E+00
 3.95000E+00               9.14836E+00
 4.05000E+00               9.16392E+00
 4.15000E+00               9.17844E+00
 4.25000E+00               9.19194E+00
 4.35000E+00               9.20443E+00
 4.45000E+00               9.21593E+00
 4.55000E+00               9.22644E+00
 4.65000E+00               9.23592E+00
 4.75000E+00               9.24437E+00
 4.85000E+00               9.25176E+00
 4.95000E+00               9.25808E+00
 5.05000E+00               9.26335E+00
 5.15000E+00               9.26761E+00
 5.25000E+00               9.27094E+00
 5.35000E+00               9.27346E+00
 5.45000E+00               9.27532E+00
 5.55000E+00               9.27666E+00
 5.65000E+00               9.27761E+00
 5.75000E+00               9.27827E+00
 5.85000E+00               9.27873E+00
 5.95000E+00               9.27904E+00
 6.05000E+00               9.27926E+00
 6.15000E+00               9.27941E+00
 6.25000E+00               9.27951E+00
 6.35000E+00               9.27958E+00
 6.45000E+00               9.27963E+00
 6.55000E+00               9.27966E+00
 6.65000E+00               9.27969E+00
 6.75000E+00               9.27970E+00
 6.85000E+00               9.27972E+00
 6.95000E+00               9.27972E+00
 7.05000E+00               9.27973E+00
 7.15000E+00               9.27973E+00
 7.25000E+00               9.27974E+00
 7.35000E+00               9.27974E+00
 7.45000E+00               9.27974E+00
 7.55000E+00               9.27974E+00
 7.65000E+00               9.27974E+00
 7.75000E+00               9.27974E+00
 7.85000E+00               9.27974E+00
 7.95000E+00               9.27974E+00
 8.05000E+00               9.27974E+00
 8.15000E+00               9.27974E+00
 8.25000E+00               9.27974E+00
 8.35000E+00               9.27975E+00
 8.45000E+00               9.27975E+00
 8.55000E+00               9.27975E+00
 8.65000E+00               9.27975E+00
 8.75000E+00               9.27975E+00
 8.85000E+00               9.27975E+00
 8.95000E+00               9.27975E+00
 9.05000E+00               9.27975E+00
 9.15000E+00               9.27975E+00
 9.25000E+00               9.27975E+00
 9.35000E+00               9.27975E+00
 9.45000E+00               9.27975E+00
 9.55000E+00               9.27975E+00
 9.65000E+00               9.27975E+00
 9.75000E+00               9.27975E+00
 9.85000E+00               9.27975E+00
 9.95000E+00               9.27975E+00
