# Units: Mol/kgw
 TITLE = " Years"
VARIABLES = "X (meters)", "H+        ", "Na+       ", "Ca++      ", "Cl-       ", "HCO3-     ", "Acetate   ", "NO3-      ", "NO2-      ", "N2(aq)    ", "NH4+      ", "O2(aq)    ", "CrO4--    ", "Cr+++     ", "C5H7O2NNO3", "decay_b_no", "
 ZONE F=POINT,I=         100
 5.00000E-02               2.49859E-04   5.25000E-03   1.60000E-03   4.64963E-03   1.38688E-03   1.38593E-03   1.22749E-03   2.71675E-04   4.18643E-07   2.31749E-04   1.00000E-13   5.00000E-06   1.00000E-33   9.97647E-16   1.00000E-15
 1.50000E-01               2.78367E-04   5.25000E-03   1.60000E-03   4.64963E-03   1.48439E-03   1.30468E-03   1.03359E-03   4.64825E-04   7.90307E-07   2.18748E-04   1.00000E-13   5.00000E-06   1.00000E-33   9.97650E-16   1.00000E-15
 2.50000E-01               3.06511E-04   5.25000E-03   1.60000E-03   4.64963E-03   1.58146E-03   1.22378E-03   8.40918E-04   6.56523E-04   1.27945E-06   2.05805E-04   1.00000E-13   5.00000E-06   1.00000E-33   9.97653E-16   1.00000E-15
 3.50000E-01               3.34004E-04   5.25000E-03   1.60000E-03   4.64963E-03   1.67786E-03   1.14345E-03   6.50262E-04   8.45753E-04   1.99231E-06   1.92952E-04   1.00000E-13   5.00000E-06   1.00000E-33   9.97656E-16   1.00000E-15
 4.50000E-01               3.60150E-04   5.25000E-03   1.60000E-03   4.64963E-03   1.77306E-03   1.06411E-03   4.63472E-04   1.03013E-03   3.20025E-06   1.80258E-04   1.00000E-13   5.00000E-06   1.00000E-33   9.97659E-16   1.00000E-15
 5.50000E-01               3.83089E-04   5.25000E-03   1.60000E-03   4.64963E-03   1.86579E-03   9.86846E-04   2.85347E-04   1.20337E-03   5.63929E-06   1.67895E-04   1.00000E-13   5.00000E-06   1.00000E-33   9.97661E-16   1.00000E-15
 6.50000E-01               3.97750E-04   5.25000E-03   1.60000E-03   4.64963E-03   1.95257E-03   9.14525E-04   1.28839E-04   1.34851E-03   1.13264E-05   1.56324E-04   1.00000E-13   5.00000E-06   1.00000E-33   9.97664E-16   1.00000E-15
 7.50000E-01               3.91665E-04   5.25000E-03   1.60000E-03   4.64963E-03   2.02495E-03   8.54211E-04   2.57810E-05   1.42377E-03   2.52252E-05   1.46674E-04   1.00000E-13   5.00000E-06   1.00000E-33   9.97667E-16   1.00000E-15
 8.50000E-01               3.55167E-04   5.25000E-03   1.60000E-03   4.64963E-03   2.07545E-03   8.12123E-04   2.24484E-06   1.39565E-03   5.10502E-05   1.39940E-04   1.00000E-13   5.00000E-06   1.00000E-33   9.97669E-16   1.00000E-15
 9.50000E-01               3.12332E-04   5.25000E-03   1.60000E-03   4.64963E-03   2.11824E-03   7.76465E-04   1.75183E-07   1.34205E-03   7.88863E-05   1.34234E-04   1.00000E-13   5.00000E-06   1.00000E-33   9.97670E-16   1.00000E-15
 1.05000E+00               2.70898E-04   5.25000E-03   1.60000E-03   4.64963E-03   2.15844E-03   7.42965E-04   1.41345E-08   1.28872E-03   1.05633E-04   1.28874E-04   1.00000E-13   5.00000E-06   1.00000E-33   9.97672E-16   1.00000E-15
 1.15000E+00               2.31317E-04   5.25000E-03   1.60000E-03   4.64963E-03   2.19676E-03   7.11037E-04   1.18920E-09   1.23766E-03   1.31171E-04   1.23766E-04   1.00000E-13   5.00000E-06   1.00000E-33   9.97674E-16   1.00000E-15
 1.25000E+00               1.93421E-04   5.25000E-03   1.60000E-03   4.64963E-03   2.23343E-03   6.80475E-04   1.04069E-10   1.18876E-03   1.55620E-04   1.18876E-04   1.00000E-13   5.00000E-06   1.00000E-33   9.97676E-16   1.00000E-15
 1.35000E+00               1.57035E-04   5.25000E-03   1.60000E-03   4.64963E-03   2.26864E-03   6.51132E-04   9.44556E-12   1.14181E-03   1.79095E-04   1.14181E-04   1.00000E-13   5.00000E-06   1.00000E-33   9.97678E-16   1.00000E-15
 1.45000E+00               1.22011E-04   5.25000E-03   1.60000E-03   4.64963E-03   2.30254E-03   6.22887E-04   8.86904E-13   1.09662E-03   2.01690E-04   1.09662E-04   1.00000E-13   5.00000E-06   1.00000E-33   9.97680E-16   1.00000E-15
 1.55000E+00               8.82257E-05   5.25000E-03   1.60000E-03   4.64963E-03   2.33523E-03   5.95640E-04   8.59667E-14   1.05302E-03   2.23488E-04   1.05302E-04   1.00000E-13   5.00000E-06   1.00000E-33   9.97682E-16   1.00000E-15
 1.65000E+00               5.55734E-05   5.25000E-03   1.60000E-03   4.64963E-03   2.36683E-03   5.69308E-04   8.58574E-15   1.01089E-03   2.44554E-04   1.01089E-04   1.00000E-13   5.00000E-06   1.00000E-33   9.97685E-16   1.00000E-15
 1.75000E+00               2.39652E-05   5.25000E-03   1.60000E-03   4.64963E-03   2.39742E-03   5.43817E-04   8.82093E-16   9.70108E-04   2.64946E-04   9.70108E-05   1.00000E-13   5.00000E-06   1.00000E-33   9.97689E-16   1.00000E-15
 1.85000E+00              -6.67556E-06   5.25000E-03   1.60000E-03   4.64963E-03   2.42707E-03   5.19107E-04   9.30943E-17   9.30572E-04   2.84714E-04   9.30572E-05   1.00000E-13   5.00000E-06   1.00000E-33   9.97694E-16   1.00000E-15
 1.95000E+00              -3.64150E-05   5.25000E-03   1.60000E-03   4.64963E-03   2.45585E-03   4.95124E-04   1.00801E-17   8.92198E-04   3.03901E-04   8.92198E-05   1.00000E-13   5.00000E-06   1.00000E-33   9.97700E-16   1.00000E-15
 2.05000E+00              -6.53105E-05   5.25000E-03   1.60000E-03   4.64963E-03   2.48381E-03   4.71821E-04   1.11858E-18   8.54914E-04   3.22543E-04   8.54914E-05   1.00000E-13   5.00000E-06   1.00000E-33   9.97708E-16   1.00000E-15
 2.15000E+00              -9.34121E-05   5.25000E-03   1.60000E-03   4.64963E-03   2.51101E-03   4.49158E-04   1.27091E-19   8.18653E-04   3.40673E-04   8.18653E-05   1.00000E-13   5.00000E-06   1.00000E-33   9.97715E-16   1.00000E-15
 2.25000E+00              -1.20763E-04   5.25000E-03   1.60000E-03   4.64963E-03   2.53748E-03   4.27101E-04   1.47722E-20   7.83361E-04   3.58319E-04   7.83361E-05   1.00000E-13   5.00000E-06   1.00000E-33   9.97723E-16   1.00000E-15
 2.35000E+00              -1.47403E-04   5.25000E-03   1.60000E-03   4.64963E-03   2.56326E-03   4.05618E-04   1.75524E-21   7.48988E-04   3.75506E-04   7.48988E-05   1.00000E-13   5.00000E-06   1.00000E-33   9.97730E-16   1.00000E-15
 2.45000E+00              -1.73363E-04   5.25000E-03   1.60000E-03   4.64963E-03   2.58838E-03   3.84682E-04   2.13068E-22   7.15491E-04   3.92255E-04   7.15491E-05   1.00000E-13   5.00000E-06   1.00000E-33   9.97738E-16   1.00000E-15
 2.55000E+00              -1.98674E-04   5.25000E-03   1.60000E-03   4.64963E-03   2.61288E-03   3.64270E-04   2.64094E-23   6.82832E-04   4.08584E-04   6.82832E-05   1.00000E-13   5.00000E-06   1.00000E-33   9.97745E-16   1.00000E-15
 2.65000E+00              -2.23359E-04   5.25000E-03   1.60000E-03   4.64963E-03   2.63677E-03   3.44362E-04   3.34089E-24   6.50980E-04   4.24510E-04   6.50980E-05   1.00000E-13   5.00000E-06   1.00000E-33   9.97752E-16   1.00000E-15
 2.75000E+00              -2.47442E-04   5.25000E-03   1.60000E-03   4.64963E-03   2.66007E-03   3.24941E-04   4.31199E-25   6.19905E-04   4.40047E-04   6.19905E-05   1.00000E-13   5.00000E-06   1.00000E-33   9.97759E-16   1.00000E-15
 2.85000E+00              -2.70939E-04   5.25000E-03   1.60000E-03   4.64963E-03   2.68281E-03   3.05991E-04   5.67677E-26   5.89586E-04   4.55207E-04   5.89586E-05   1.00000E-13   5.00000E-06   1.00000E-33   9.97766E-16   1.00000E-15
 2.95000E+00              -2.93867E-04   5.25000E-03   1.60000E-03   4.64963E-03   2.70500E-03   2.87501E-04   7.62244E-27   5.60002E-04   4.69999E-04   5.60002E-05   1.00000E-13   5.00000E-06   1.00000E-33   9.97772E-16   1.00000E-15
 3.05000E+00              -3.16236E-04   5.25000E-03   1.60000E-03   4.64963E-03   2.72665E-03   2.69461E-04   1.04407E-27   5.31138E-04   4.84431E-04   5.31138E-05   1.00000E-13   5.00000E-06   1.00000E-33   9.97778E-16   1.00000E-15
 3.15000E+00              -3.38057E-04   5.25000E-03   1.60000E-03   4.64963E-03   2.74776E-03   2.51864E-04   1.45987E-28   5.02983E-04   4.98509E-04   5.02983E-05   1.00000E-13   5.00000E-06   1.00000E-33   9.97784E-16   1.00000E-15
 3.25000E+00              -3.59334E-04   5.25000E-03   1.60000E-03   4.64963E-03   2.76835E-03   2.34705E-04   2.08766E-29   4.75529E-04   5.12236E-04   4.75529E-05   1.00000E-13   5.00000E-06   1.00000E-33   9.97790E-16   1.00000E-15
 3.35000E+00              -3.80070E-04   5.25000E-03   1.60000E-03   4.64963E-03   2.78842E-03   2.17983E-04   3.06763E-30   4.48772E-04   5.25614E-04   4.48772E-05   1.00000E-13   5.00000E-06   1.00000E-33   9.97796E-16   1.00000E-15
 3.45000E+00              -4.00265E-04   5.25000E-03   1.60000E-03   4.64963E-03   2.80796E-03   2.01696E-04   4.68446E-31   4.22714E-04   5.38643E-04   4.22714E-05   1.00000E-13   5.00000E-06   1.00000E-33   9.97801E-16   1.00000E-15
 3.55000E+00              -4.19914E-04   5.25000E-03   1.60000E-03   4.64963E-03   2.82698E-03   1.85850E-04   7.63545E-32   3.97361E-04   5.51320E-04   3.97361E-05   1.00000E-13   5.00000E-06   1.00000E-33   9.97806E-16   1.00000E-15
 3.65000E+00              -4.39009E-04   5.25000E-03   1.60000E-03   4.64963E-03   2.84546E-03   1.70451E-04   1.41015E-32   3.72722E-04   5.63639E-04   3.72722E-05   1.00000E-13   5.00000E-06   1.00000E-33   9.97811E-16   1.00000E-15
 3.75000E+00              -4.57537E-04   5.25000E-03   1.60000E-03   4.64963E-03   2.86339E-03   1.55509E-04   3.31704E-33   3.48814E-04   5.75593E-04   3.48814E-05   1.00000E-13   5.00000E-06   1.00000E-33   9.97816E-16   1.00000E-15
 3.85000E+00              -4.75481E-04   5.25000E-03   1.60000E-03   4.64963E-03   2.88075E-03   1.41038E-04   1.16688E-33   3.25661E-04   5.87169E-04   3.25661E-05   1.00000E-13   5.00000E-06   1.00000E-33   9.97821E-16   1.00000E-15
 3.95000E+00              -4.92816E-04   5.25000E-03   1.60000E-03   4.64963E-03   2.89753E-03   1.27059E-04   6.52793E-34   3.03294E-04   5.98353E-04   3.03294E-05   1.00000E-13   5.00000E-06   1.00000E-33   9.97825E-16   1.00000E-15
 4.05000E+00              -5.09512E-04   5.25000E-03   1.60000E-03   4.64963E-03   2.91369E-03   1.13594E-04   5.02234E-34   2.81751E-04   6.09125E-04   2.81751E-05   1.00000E-13   5.00000E-06   1.00000E-33   9.97830E-16   1.00000E-15
 4.15000E+00              -5.25530E-04   5.25000E-03   1.60000E-03   4.64963E-03   2.92919E-03   1.00676E-04   4.44171E-34   2.61081E-04   6.19459E-04   2.61081E-05   1.00000E-13   5.00000E-06   1.00000E-33   9.97834E-16   1.00000E-15
 4.25000E+00              -5.40825E-04   5.25000E-03   1.60000E-03   4.64963E-03   2.94399E-03   8.83418E-05   4.12186E-34   2.41347E-04   6.29327E-04   2.41347E-05   1.00000E-13   5.00000E-06   1.00000E-33   9.97837E-16   1.00000E-15
 4.35000E+00              -5.55337E-04   5.25000E-03   1.60000E-03   4.64963E-03   2.95803E-03   7.66381E-05   3.88712E-34   2.22621E-04   6.38690E-04   2.22621E-05   1.00000E-13   5.00000E-06   1.00000E-33   9.97841E-16   1.00000E-15
 4.45000E+00              -5.69001E-04   5.25000E-03   1.60000E-03   4.64963E-03   2.97126E-03   6.56192E-05   3.69001E-34   2.04991E-04   6.47505E-04   2.04991E-05   1.00000E-13   5.00000E-06   1.00000E-33   9.97844E-16   1.00000E-15
 4.55000E+00              -5.81736E-04   5.25000E-03   1.60000E-03   4.64963E-03   2.98358E-03   5.53485E-05   3.51862E-34   1.88558E-04   6.55721E-04   1.88558E-05   1.00000E-13   5.00000E-06   1.00000E-33   9.97847E-16   1.00000E-15
 4.65000E+00              -5.93457E-04   5.25000E-03   1.60000E-03   4.64963E-03   2.99492E-03   4.58960E-05   3.37155E-34   1.73434E-04   6.63283E-04   1.73434E-05   1.00000E-13   5.00000E-06   1.00000E-33   9.97850E-16   1.00000E-15
 4.75000E+00              -6.04073E-04   5.25000E-03   1.60000E-03   4.64963E-03   3.00520E-03   3.73353E-05   3.25083E-34   1.59737E-04   6.70132E-04   1.59737E-05   1.00000E-13   5.00000E-06   1.00000E-33   9.97853E-16   1.00000E-15
 4.85000E+00              -6.13496E-04   5.25000E-03   1.60000E-03   4.64963E-03   3.01432E-03   2.97359E-05   3.15973E-34   1.47577E-04   6.76211E-04   1.47577E-05   1.00000E-13   5.00000E-06   1.00000E-33   9.97855E-16   1.00000E-15
 4.95000E+00              -6.21660E-04   5.25000E-03   1.60000E-03   4.64963E-03   3.02222E-03   2.31520E-05   3.10164E-34   1.37043E-04   6.81478E-04   1.37043E-05   1.00000E-13   5.00000E-06   1.00000E-33   9.97857E-16   1.00000E-15
 5.05000E+00              -6.28533E-04   5.25000E-03   1.60000E-03   4.64963E-03   3.02887E-03   1.76091E-05   3.07822E-34   1.28175E-04   6.85913E-04   1.28175E-05   1.00000E-13   5.00000E-06   1.00000E-33   9.97859E-16   1.00000E-15
 5.15000E+00              -6.34137E-04   5.25000E-03   1.60000E-03   4.64963E-03   3.03429E-03   1.30898E-05   3.08093E-34   1.20944E-04   6.89528E-04   1.20944E-05   1.00000E-13   5.00000E-06   1.00000E-33   9.97860E-16   1.00000E-15
 5.25000E+00              -6.38554E-04   5.25000E-03   1.60000E-03   4.64963E-03   3.03857E-03   9.52744E-06   3.08495E-34   1.15244E-04   6.92378E-04   1.15244E-05   1.00000E-13   5.00000E-06   1.00000E-33   9.97861E-16   1.00000E-15
 5.35000E+00              -6.41923E-04   5.25000E-03   1.60000E-03   4.64963E-03   3.04183E-03   6.81085E-06   3.08947E-34   1.10897E-04   6.94551E-04   1.10897E-05   1.00000E-13   5.00000E-06   1.00000E-33   9.97862E-16   1.00000E-15
 5.45000E+00              -6.44416E-04   5.25000E-03   1.60000E-03   4.64963E-03   3.04424E-03   4.80032E-06   3.09372E-34   1.07681E-04   6.96160E-04   1.07681E-05   1.00000E-13   5.00000E-06   1.00000E-33   9.97862E-16   1.00000E-15
 5.55000E+00              -6.46216E-04   5.25000E-03   1.60000E-03   4.64963E-03   3.04598E-03   3.34904E-06   3.09729E-34   1.05358E-04   6.97321E-04   1.05358E-05   1.00000E-13   5.00000E-06   1.00000E-33   9.97863E-16   1.00000E-15
 5.65000E+00              -6.47490E-04   5.25000E-03   1.60000E-03   4.64963E-03   3.04721E-03   2.32137E-06   3.10005E-34   1.03714E-04   6.98143E-04   1.03714E-05   1.00000E-13   5.00000E-06   1.00000E-33   9.97863E-16   1.00000E-15
 5.75000E+00              -6.48380E-04   5.25000E-03   1.60000E-03   4.64963E-03   3.04808E-03   1.60351E-06   3.10207E-34   1.02566E-04   6.98717E-04   1.02566E-05   1.00000E-13   5.00000E-06   1.00000E-33   9.97863E-16   1.00000E-15
 5.85000E+00              -6.48997E-04   5.25000E-03   1.60000E-03   4.64963E-03   3.04867E-03   1.10642E-06   3.10348E-34   1.01770E-04   6.99115E-04   1.01770E-05   1.00000E-13   5.00000E-06   1.00000E-33   9.97863E-16   1.00000E-15
 5.95000E+00              -6.49421E-04   5.25000E-03   1.60000E-03   4.64963E-03   3.04908E-03   7.63918E-07   3.10445E-34   1.01222E-04   6.99389E-04   1.01222E-05   1.00000E-13   5.00000E-06   1.00000E-33   9.97863E-16   1.00000E-15
 6.05000E+00              -6.49713E-04   5.25000E-03   1.60000E-03   4.64963E-03   3.04937E-03   5.28411E-07   3.10509E-34   1.00845E-04   6.99577E-04   1.00845E-05   1.00000E-13   5.00000E-06   1.00000E-33   9.97863E-16   1.00000E-15
 6.15000E+00              -6.49914E-04   5.25000E-03   1.60000E-03   4.64963E-03   3.04956E-03   3.66481E-07   3.10552E-34   1.00586E-04   6.99707E-04   1.00586E-05   1.00000E-13   5.00000E-06   1.00000E-33   9.97864E-16   1.00000E-15
 6.25000E+00              -6.50052E-04   5.25000E-03   1.60000E-03   4.64963E-03   3.04969E-03   2.54988E-07   3.10579E-34   1.00408E-04   6.99796E-04   1.00408E-05   1.00000E-13   5.00000E-06   1.00000E-33   9.97864E-16   1.00000E-15
 6.35000E+00              -6.50148E-04   5.25000E-03   1.60000E-03   4.64963E-03   3.04979E-03   1.78041E-07   3.10596E-34   1.00285E-04   6.99858E-04   1.00285E-05   1.00000E-13   5.00000E-06   1.00000E-33   9.97864E-16   1.00000E-15
 6.45000E+00              -6.50214E-04   5.25000E-03   1.60000E-03   4.64963E-03   3.04985E-03   1.24778E-07   3.10607E-34   1.00200E-04   6.99900E-04   1.00200E-05   1.00000E-13   5.00000E-06   1.00000E-33   9.97864E-16   1.00000E-15
 6.55000E+00              -6.50260E-04   5.25000E-03   1.60000E-03   4.64963E-03   3.04989E-03   8.77843E-08   3.10613E-34   1.00140E-04   6.99930E-04   1.00140E-05   1.00000E-13   5.00000E-06   1.00000E-33   9.97864E-16   1.00000E-15
 6.65000E+00              -6.50292E-04   5.25000E-03   1.60000E-03   4.64963E-03   3.04993E-03   6.19981E-08   3.10617E-34   1.00099E-04   6.99950E-04   1.00099E-05   1.00000E-13   5.00000E-06   1.00000E-33   9.97864E-16   1.00000E-15
 6.75000E+00              -6.50314E-04   5.25000E-03   1.60000E-03   4.64963E-03   3.04995E-03   4.39561E-08   3.10619E-34   1.00070E-04   6.99965E-04   1.00070E-05   1.00000E-13   5.00000E-06   1.00000E-33   9.97864E-16   1.00000E-15
 6.85000E+00              -6.50330E-04   5.25000E-03   1.60000E-03   4.64963E-03   3.04996E-03   3.12844E-08   3.10619E-34   1.00050E-04   6.99975E-04   1.00050E-05   1.00000E-13   5.00000E-06   1.00000E-33   9.97864E-16   1.00000E-15
 6.95000E+00              -6.50341E-04   5.25000E-03   1.60000E-03   4.64963E-03   3.04997E-03   2.23503E-08   3.10619E-34   1.00036E-04   6.99982E-04   1.00036E-05   1.00000E-13   5.00000E-06   1.00000E-33   9.97864E-16   1.00000E-15
 7.05000E+00              -6.50349E-04   5.25000E-03   1.60000E-03   4.64963E-03   3.04998E-03   1.60273E-08   3.10618E-34   1.00026E-04   6.99987E-04   1.00026E-05   1.00000E-13   5.00000E-06   1.00000E-33   9.97864E-16   1.00000E-15
 7.15000E+00              -6.50354E-04   5.25000E-03   1.60000E-03   4.64963E-03   3.04999E-03   1.15354E-08   3.10617E-34   1.00018E-04   6.99991E-04   1.00018E-05   1.00000E-13   5.00000E-06   1.00000E-33   9.97864E-16   1.00000E-15
 7.25000E+00              -6.50358E-04   5.25000E-03   1.60000E-03   4.64963E-03   3.04999E-03   8.33236E-09   3.10616E-34   1.00013E-04   6.99993E-04   1.00013E-05   1.00000E-13   5.00000E-06   1.00000E-33   9.97864E-16   1.00000E-15
 7.35000E+00              -6.50361E-04   5.25000E-03   1.60000E-03   4.64963E-03   3.04999E-03   6.03999E-09   3.10614E-34   1.00010E-04   6.99995E-04   1.00010E-05   1.00000E-13   5.00000E-06   1.00000E-33   9.97864E-16   1.00000E-15
 7.45000E+00              -6.50363E-04   5.25000E-03   1.60000E-03   4.64963E-03   3.04999E-03   4.39346E-09   3.10613E-34   1.00007E-04   6.99997E-04   1.00007E-05   1.00000E-13   5.00000E-06   1.00000E-33   9.97864E-16   1.00000E-15
 7.55000E+00              -6.50365E-04   5.25000E-03   1.60000E-03   4.64963E-03   3.05000E-03   3.20663E-09   3.10612E-34   1.00005E-04   6.99997E-04   1.00005E-05   1.00000E-13   5.00000E-06   1.00000E-33   9.97864E-16   1.00000E-15
 7.65000E+00              -6.50366E-04   5.25000E-03   1.60000E-03   4.64963E-03   3.05000E-03   2.34818E-09   3.10611E-34   1.00004E-04   6.99998E-04   1.00004E-05   1.00000E-13   5.00000E-06   1.00000E-33   9.97864E-16   1.00000E-15
 7.75000E+00              -6.50366E-04   5.25000E-03   1.60000E-03   4.64963E-03   3.05000E-03   1.72515E-09   3.10609E-34   1.00003E-04   6.99999E-04   1.00003E-05   1.00000E-13   5.00000E-06   1.00000E-33   9.97864E-16   1.00000E-15
 7.85000E+00              -6.50367E-04   5.25000E-03   1.60000E-03   4.64963E-03   3.05000E-03   1.27146E-09   3.10608E-34   1.00002E-04   6.99999E-04   1.00002E-05   1.00000E-13   5.00000E-06   1.00000E-33   9.97864E-16   1.00000E-15
 7.95000E+00              -6.50367E-04   5.25000E-03   1.60000E-03   4.64963E-03   3.05000E-03   9.40011E-10   3.10607E-34   1.00002E-04   6.99999E-04   1.00002E-05   1.00000E-13   5.00000E-06   1.00000E-33   9.97864E-16   1.00000E-15
 8.05000E+00              -6.50368E-04   5.25000E-03   1.60000E-03   4.64963E-03   3.05000E-03   6.97091E-10   3.10606E-34   1.00001E-04   6.99999E-04   1.00001E-05   1.00000E-13   5.00000E-06   1.00000E-33   9.97864E-16   1.00000E-15
 8.15000E+00              -6.50368E-04   5.25000E-03   1.60000E-03   4.64963E-03   3.05000E-03   5.18495E-10   3.10605E-34   1.00001E-04   7.00000E-04   1.00001E-05   1.00000E-13   5.00000E-06   1.00000E-33   9.97864E-16   1.00000E-15
 8.25000E+00              -6.50368E-04   5.25000E-03   1.60000E-03   4.64963E-03   3.05000E-03   3.86788E-10   3.10604E-34   1.00001E-04   7.00000E-04   1.00001E-05   1.00000E-13   5.00000E-06   1.00000E-33   9.97864E-16   1.00000E-15
 8.35000E+00              -6.50368E-04   5.25000E-03   1.60000E-03   4.64963E-03   3.05000E-03   2.89367E-10   3.10603E-34   1.00000E-04   7.00000E-04   1.00000E-05   1.00000E-13   5.00000E-06   1.00000E-33   9.97864E-16   1.00000E-15
 8.45000E+00              -6.50368E-04   5.25000E-03   1.60000E-03   4.64963E-03   3.05000E-03   2.17094E-10   3.10602E-34   1.00000E-04   7.00000E-04   1.00000E-05   1.00000E-13   5.00000E-06   1.00000E-33   9.97864E-16   1.00000E-15
 8.55000E+00              -6.50368E-04   5.25000E-03   1.60000E-03   4.64963E-03   3.05000E-03   1.63323E-10   3.10601E-34   1.00000E-04   7.00000E-04   1.00000E-05   1.00000E-13   5.00000E-06   1.00000E-33   9.97864E-16   1.00000E-15
 8.65000E+00              -6.50368E-04   5.25000E-03   1.60000E-03   4.64963E-03   3.05000E-03   1.23203E-10   3.10600E-34   1.00000E-04   7.00000E-04   1.00000E-05   1.00000E-13   5.00000E-06   1.00000E-33   9.97864E-16   1.00000E-15
 8.75000E+00              -6.50368E-04   5.25000E-03   1.60000E-03   4.64963E-03   3.05000E-03   9.31853E-11   3.10599E-34   1.00000E-04   7.00000E-04   1.00000E-05   1.00000E-13   5.00000E-06   1.00000E-33   9.97864E-16   1.00000E-15
 8.85000E+00              -6.50368E-04   5.25000E-03   1.60000E-03   4.64963E-03   3.05000E-03   7.06652E-11   3.10598E-34   1.00000E-04   7.00000E-04   1.00000E-05   1.00000E-13   5.00000E-06   1.00000E-33   9.97864E-16   1.00000E-15
 8.95000E+00              -6.50368E-04   5.25000E-03   1.60000E-03   4.64963E-03   3.05000E-03   5.37247E-11   3.10598E-34   1.00000E-04   7.00000E-04   1.00000E-05   1.00000E-13   5.00000E-06   1.00000E-33   9.97864E-16   1.00000E-15
 9.05000E+00              -6.50368E-04   5.25000E-03   1.60000E-03   4.64963E-03   3.05000E-03   4.09478E-11   3.10597E-34   1.00000E-04   7.00000E-04   1.00000E-05   1.00000E-13   5.00000E-06   1.00000E-33   9.97864E-16   1.00000E-15
 9.15000E+00              -6.50368E-04   5.25000E-03   1.60000E-03   4.64963E-03   3.05000E-03   3.12866E-11   3.10596E-34   1.00000E-04   7.00000E-04   1.00000E-05   1.00000E-13   5.00000E-06   1.00000E-33   9.97864E-16   1.00000E-15
 9.25000E+00              -6.50368E-04   5.25000E-03   1.60000E-03   4.64963E-03   3.05000E-03   2.39626E-11   3.10596E-34   1.00000E-04   7.00000E-04   1.00000E-05   1.00000E-13   5.00000E-06   1.00000E-33   9.97864E-16   1.00000E-15
 9.35000E+00              -6.50368E-04   5.25000E-03   1.60000E-03   4.64963E-03   3.05000E-03   1.83968E-11   3.10595E-34   1.00000E-04   7.00000E-04   1.00000E-05   1.00000E-13   5.00000E-06   1.00000E-33   9.97864E-16   1.00000E-15
 9.45000E+00              -6.50368E-04   5.25000E-03   1.60000E-03   4.64963E-03   3.05000E-03   1.41567E-11   3.10594E-34   1.00000E-04   7.00000E-04   1.00000E-05   1.00000E-13   5.00000E-06   1.00000E-33   9.97864E-16   1.00000E-15
 9.55000E+00              -6.50368E-04   5.25000E-03   1.60000E-03   4.64963E-03   3.05000E-03   1.09193E-11   3.10594E-34   1.00000E-04   7.00000E-04   1.00000E-05   1.00000E-13   5.00000E-06   1.00000E-33   9.97864E-16   1.00000E-15
 9.65000E+00              -6.50368E-04   5.25000E-03   1.60000E-03   4.64963E-03   3.05000E-03   8.44287E-12   3.10593E-34   1.00000E-04   7.00000E-04   1.00000E-05   1.00000E-13   5.00000E-06   1.00000E-33   9.97864E-16   1.00000E-15
 9.75000E+00              -6.50368E-04   5.25000E-03   1.60000E-03   4.64963E-03   3.05000E-03   6.55062E-12   3.10592E-34   1.00000E-04   7.00000E-04   1.00000E-05   1.00000E-13   5.00000E-06   1.00000E-33   9.97864E-16   1.00000E-15
 9.85000E+00              -6.50368E-04   5.25000E-03   1.60000E-03   4.64963E-03   3.05000E-03   5.13051E-12   3.10592E-34   1.00000E-04   7.00000E-04   1.00000E-05   1.00000E-13   5.00000E-06   1.00000E-33   9.97864E-16   1.00000E-15
 9.95000E+00              -6.50368E-04   5.25000E-03   1.60000E-03   4.64963E-03   3.05000E-03   4.19525E-12   3.10592E-34   1.00000E-04   7.00000E-04   1.00000E-05   1.00000E-13   5.00000E-06   1.00000E-33   9.97864E-16   1.00000E-15
