# Units: Volume % (m^3 mineral/m^3 porous medium)
 TITLE = " Years"
VARIABLES = "X (meters)", "Ferrihydri", "Goethite_D", "UO2(s)    ", "Goethite  ", "CalciteRif", "Calcite44R", "MagnesiteR", "FeS(am)   ", "FeS34(am) ", "S32       ", "S34       ", "Fe(OH)3   ", "C5H7O2NFe(", "C5H7O2NSO4", "C5H7O2NCH4", "Quartz    ", "decay_b_so", "
 ZONE F=POINT,I=           1
 5.00000E-01               9.99985E-08   1.00000E-07   0.00000E+00   1.00000E-07   4.71882E-02   1.00094E-03   9.55998E-07   0.00000E+00   0.00000E+00   4.94876E-21   2.19539E-22   0.00000E+00   0.00000E+00   0.00000E+00   0.00000E+00   8.01808E-34   3.20000E-06
