# Units: Volume % (m^3 mineral/m^3 porous medium)
 TITLE = " Years"
VARIABLES = "X (meters) ", "Ferrihydrite_", "Goethite_DIRB", "UO2(s)       ", "Goethite     ", "CalciteRifle ", "Calcite44Rifl", "MagnesiteRifl", "FeS(am)      ", "FeS34(am)    ", "S32          ", "S34          ", "Fe(OH)3      ", "C5H7O2NFe(s) ", "C5H7O2NSO4(s)", "C5H7O2NCH4(s)", "Quartz       ", "decay_b_so4(s", "
 ZONE F=POINT,I=           1
 5.00000E-01               9.99985E-08   1.00000E-07   0.00000E+00   1.00000E-07   4.71882E-02   1.00094E-03   9.55998E-07   0.00000E+00   0.00000E+00   4.94876E-21   2.19539E-22   0.00000E+00   0.00000E+00   0.00000E+00   0.00000E+00   8.01808E-34   3.20000E-06
